 Gaussian 16, Revision C.01,
 Gaussian 16:  ES64L-G16RevC.01  3-Jul-2019

 --------------------------------------------------------------------
 #P B3LYP/6-311++G(d,p) freq(noraman) SCF=YQC EmpiricalDispersion=GD3
 --------------------------------------------------------------------

 --------------------------------
 Restart from TpO_amine_b3lyp.log
 --------------------------------
 Symbolic Z-matrix:
 Charge =  0 Multiplicity = 1

                         Standard orientation:
 ---------------------------------------------------------------------
 Center     Atomic      Atomic             Coordinates (Angstroms)
 Number     Number       Type             X           Y           Z
 ---------------------------------------------------------------------
      1          6           0        1.398684   -0.373727   -0.000318
      2          6           0        1.040279    1.047955   -0.000374
      3          6           0       -0.375889    1.397800   -0.000279
      4          6           0       -1.427916    0.376592   -0.000288
      5          6           0       -1.022757   -1.024739   -0.000305
      6          6           0        0.387639   -1.425273   -0.000423
      7          8           0        0.714773   -2.634380   -0.000549
      8          8           0       -2.638628    0.697736   -0.000309
      9          8           0        1.923802    1.935833   -0.000398
     10          6           0       -1.959416   -2.044668   -0.000250
     11          6           0       -0.790939    2.718915   -0.000268
     12          6           0        2.750337   -0.674757   -0.000255
     13          7           0       -3.281876   -1.862117   -0.000170
     14          1           0       -1.581252   -3.059824   -0.000349
     15          7           0        0.028224    3.773063   -0.000374
     16          1           0       -1.859193    2.898885   -0.000323
     17          7           0        3.253788   -1.911197   -0.000327
     18          1           0        3.440267    0.160443   -0.000300
     19          6           0       -4.288564   -2.843777    0.000116
     20          1           0       -3.548292   -0.869580   -0.000336
     21          6           0        4.607387   -2.291777    0.000136
     22          1           0        2.527676   -2.638415   -0.000850
     23          6           0       -0.318817    5.135654   -0.000085
     24          1           0        1.021043    3.507740   -0.000771
     25          6           0       -5.619335   -2.404729   -0.001946
     26          6           0        0.726670    6.068758   -0.003783
     27          6           0        4.892964   -3.663690   -0.004309
     28          6           0       -6.661544   -3.324856   -0.001746
     29          1           0       -5.829257   -1.340460   -0.003758
     30          6           0       -4.018256   -4.217953    0.002473
     31          6           0        0.450767    7.431366   -0.003669
     32          1           0        1.753355    5.718542   -0.006842
     33          6           0       -1.644084    5.588507    0.003886
     34          6           0        5.662030   -1.370285    0.005052
     35          6           0        6.211050   -4.105814   -0.004032
     36          1           0        4.076464   -4.377874   -0.008093
     37          6           0       -5.070194   -5.129074    0.002582
     38          1           0       -2.999965   -4.584542    0.004355
     39          6           0       -6.394816   -4.693435    0.000477
     40          1           0       -7.685407   -2.968900   -0.003367
     41          6           0       -0.867866    7.884513    0.000081
     42          1           0        1.270885    8.140170   -0.006576
     43          6           0       -1.907330    6.955039    0.003854
     44          1           0       -2.470645    4.889874    0.007211
     45          6           0        6.977183   -1.825336    0.005158
     46          1           0        5.470029   -0.305189    0.009069
     47          6           0        7.262637   -3.190222    0.000622
     48          1           0        6.415029   -5.170419   -0.007528
     49          1           0       -4.848566   -6.190268    0.004422
     50          1           0       -7.206885   -5.410548    0.000622
     51          1           0       -2.937206    7.293569    0.006953
     52          1           0       -1.082999    8.946313    0.000150
     53          1           0        8.289813   -3.534624    0.000817
     54          1           0        7.785172   -1.102565    0.008999
 ---------------------------------------------------------------------

 SCF Done:  E(RB3LYP) =  -1431.92510825     a.u. after    9 cycles
 SCF Done:  E(RB3LYP) =  -1431.92512529     A.U. after    9 cycles

 The electronic state is 1-A.
 Alpha  occ. eigenvalues --  -19.09497 -19.09496 -19.09495 -14.37073 -14.37073
 Alpha  occ. eigenvalues --  -14.37070 -10.25498 -10.25498 -10.25497 -10.24097
 Alpha  occ. eigenvalues --  -10.24097 -10.24096 -10.23699 -10.23699 -10.23698
 Alpha  occ. eigenvalues --  -10.19039 -10.19039 -10.19038 -10.18984 -10.18984
 Alpha  occ. eigenvalues --  -10.18983 -10.18966 -10.18966 -10.18965 -10.18926
 Alpha  occ. eigenvalues --  -10.18926 -10.18926 -10.18379 -10.18379 -10.18379
 Alpha  occ. eigenvalues --  -10.17517 -10.17517 -10.17516  -1.03311  -1.02553
 Alpha  occ. eigenvalues --   -1.02551  -0.98243  -0.98242  -0.98006  -0.86981
 Alpha  occ. eigenvalues --   -0.86981  -0.86959  -0.82638  -0.79564  -0.79563
 Alpha  occ. eigenvalues --   -0.76840  -0.76607  -0.76607  -0.76450  -0.74262
 Alpha  occ. eigenvalues --   -0.74261  -0.69022  -0.66106  -0.66106  -0.63753
 Alpha  occ. eigenvalues --   -0.63558  -0.63557  -0.61743  -0.61023  -0.61023
 Alpha  occ. eigenvalues --   -0.58567  -0.58567  -0.57293  -0.55769  -0.55769
 Alpha  occ. eigenvalues --   -0.55004  -0.51583  -0.50678  -0.50677  -0.48922
 Alpha  occ. eigenvalues --   -0.48585  -0.48585  -0.46202  -0.46069  -0.46068
 Alpha  occ. eigenvalues --   -0.45567  -0.45320  -0.44915  -0.44776  -0.44775
 Alpha  occ. eigenvalues --   -0.43983  -0.43983  -0.43909  -0.43210  -0.43209
 Alpha  occ. eigenvalues --   -0.42464  -0.42464  -0.41535  -0.41211  -0.40397
 Alpha  occ. eigenvalues --   -0.40397  -0.38560  -0.38560  -0.37854  -0.37834
 Alpha  occ. eigenvalues --   -0.37834  -0.36284  -0.36283  -0.36235  -0.35966
 Alpha  occ. eigenvalues --   -0.35966  -0.35787  -0.27850  -0.27850  -0.27551
 Alpha  occ. eigenvalues --   -0.27199  -0.27198  -0.27187  -0.26723  -0.26723
 Alpha  occ. eigenvalues --   -0.24642  -0.23831  -0.21419  -0.21419
 Alpha virt. eigenvalues --   -0.08507  -0.06101  -0.06101  -0.02828  -0.02828
 Alpha virt. eigenvalues --   -0.02824  -0.00978  -0.00752  -0.00752  -0.00363
 Alpha virt. eigenvalues --   -0.00362  -0.00089   0.00508   0.00508   0.00772

 Mulliken charges:
               1
     1  C    0.129579
     2  C   -0.392496
     3  C    0.129717
     4  C   -0.392899
     5  C    0.129841
     6  C   -0.392597
     7  O   -0.308493
     8  O   -0.308446
     9  O   -0.308503
    10  C   -0.355287
    11  C   -0.355131
    12  C   -0.355351
    13  N    0.163116
    14  H    0.266807
    15  N    0.163127
    16  H    0.266833
    17  N    0.163086
    18  H    0.266813
    19  C   -0.212674
    20  H    0.473396
    21  C   -0.212454
    22  H    0.473199
    23  C   -0.212613
    24  H    0.473278
    25  C   -0.220451
    26  C   -0.220613
    27  C   -0.220654
    28  C   -0.299780
    29  H    0.144783
    30  C    0.480487
    31  C   -0.299788
    32  H    0.144778
    33  C    0.480519
    34  C    0.480539
    35  C   -0.299856
    36  H    0.144788
    37  C   -0.157969
    38  H    0.108287
    39  C   -0.343148
    40  H    0.182834
    41  C   -0.343147
    42  H    0.182834
    43  C   -0.157905
    44  H    0.108297
    45  C   -0.157976
    46  H    0.108316
    47  C   -0.343094
    48  H    0.182833
    49  H    0.191828
    50  H    0.149251
    51  H    0.191827
    52  H    0.149253
    53  H    0.149253
    54  H    0.191824
 Sum of Mulliken charges =   0.00000

 Dipole moment (field-independent basis, Debye):
    X=              0.0005    Y=              0.0012    Z=              0.0007  Tot=              0.0015
 Quadrupole moment (field-independent basis, Debye-Ang):
   XX=           -158.5430   YY=           -158.5462   ZZ=           -203.3534
   XY=             -0.0030   XZ=             -0.0049   YZ=              0.0125

  Exact polarizability:     622.748       0.002     622.702      -0.018       0.042     171.253
 Approx polarizability:     852.059       0.000     852.026      -0.041       0.101     276.921

                      1                      2                      3
                      A                      A                      A
 Frequencies --      5.0229                 8.4429                 9.6472
 Red. masses --      3.5971                 3.6164                 3.6174
 Frc consts  --      0.0001                 0.0002                 0.0002
 IR Inten    --      0.0111                 0.0044                 0.0009

                      4                      5                      6
                      A                      A                      A
 Frequencies --     17.7943                36.2485                36.3862
 Red. masses --      6.9004                 5.8085                 5.8031
 Frc consts  --      0.0013                 0.0045                 0.0045
 IR Inten    --      1.3810                 0.2025                 0.2023

                      7                      8                      9
                      A                      A                      A
 Frequencies --     36.7886                37.3245                88.7567
 Red. masses --      7.5175                 7.5337                 6.7106
 Frc consts  --      0.0060                 0.0062                 0.0311
 IR Inten    --      0.0018                 0.0004                 0.0000

                     10                     11                     12
                      A                      A                      A
 Frequencies --     88.8940                90.1456               110.3705
 Red. masses --      6.7204                 5.6737                 6.6481
 Frc consts  --      0.0313                 0.0272                 0.0477
 IR Inten    --      0.0000                 0.0000                 2.0917

                     13                     14                     15
                      A                      A                      A
 Frequencies --    166.3029               177.7010               177.7502
 Red. masses --      6.6469                 5.5217                 5.5240
 Frc consts  --      0.1083                 0.1027                 0.1028
 IR Inten    --      0.0003                 5.6774                 5.6708

                     16                     17                     18
                      A                      A                      A
 Frequencies --    178.2901               207.1262               207.3420
 Red. masses --      7.5824                 5.1427                 5.1461
 Frc consts  --      0.1420                 0.1300                 0.1303
 IR Inten    --      7.9731                 0.0006                 0.0011

                     19                     20                     21
                      A                      A                      A
 Frequencies --    257.8816               257.9300               269.4301
 Red. masses --      7.5203                 7.5163                 5.3161
 Frc consts  --      0.2947                 0.2946                 0.2274
 IR Inten    --     16.3815                16.3345                 0.2105

                     22                     23                     24
                      A                      A                      A
 Frequencies --    297.3023               297.7517               309.7651
 Red. masses --      4.4582                 4.4761                 6.8011
 Frc consts  --      0.2322                 0.2338                 0.3845
 IR Inten    --      0.0002                 0.0005                 0.0000

                     25                     26                     27
                      A                      A                      A
 Frequencies --    346.2761               394.6681               394.9249
 Red. masses --      2.6359                 3.3268                 3.3237
 Frc consts  --      0.1862                 0.3053                 0.3054
 IR Inten    --      0.5094                 0.0001                 0.0003

                     28                     29                     30
                      A                      A                      A
 Frequencies --    413.1542               415.6457               415.7011
 Red. masses --      2.9296                 3.0144                 3.0144
 Frc consts  --      0.2946                 0.3068                 0.3069
 IR Inten    --      0.0467                 0.0001                 0.0000

                     31                     32                     33
                      A                      A                      A
 Frequencies --    448.9061               449.0350               482.6076
 Red. masses --     12.4848                12.4894                 7.1657
 Frc consts  --      1.4823                 1.4837                 0.9833
 IR Inten    --     11.4233                11.5227                29.0850

                     34                     35                     36
                      A                      A                      A
 Frequencies --    482.6695               498.0756               502.3405
 Red. masses --      7.1787                 6.2426                 6.2727
 Frc consts  --      0.9854                 0.9124                 0.9326
 IR Inten    --     29.4421                 0.0025                61.8001

                     37                     38                     39
                      A                      A                      A
 Frequencies --    502.4215               517.7382               519.9473
 Red. masses --      6.2741                 2.9498                 3.0093
 Frc consts  --      0.9331                 0.4659                 0.4793
 IR Inten    --     61.9682                31.4548                 0.0031

                     40                     41                     42
                      A                      A                      A
 Frequencies --    519.9628               562.9994               622.8307
 Red. masses --      3.0085                 7.8936                10.3296
 Frc consts  --      0.4792                 1.4741                 2.3609
 IR Inten    --      0.0014                 0.0000                 0.0000

                     43                     44                     45
                      A                      A                      A
 Frequencies --    631.8497               631.8796               631.9733
 Red. masses --      6.4308                 6.4303                 6.4625
 Frc consts  --      1.5127                 1.5127                 1.5207
 IR Inten    --      0.2729                 0.2784                 0.0082

                     46                     47                     48
                      A                      A                      A
 Frequencies --    645.3138               645.3479               697.6984
 Red. masses --      5.9747                 5.9775                 1.8849
 Frc consts  --      1.4659                 1.4668                 0.5406
 IR Inten    --      2.9159                 2.9211                 0.0317

                     49                     50                     51
                      A                      A                      A
 Frequencies --    697.7074               697.9927               722.3739
 Red. masses --      1.8846                 1.8880                 5.6221
 Frc consts  --      0.5405                 0.5419                 1.7285
 IR Inten    --      0.0142                83.9237                 0.0009

                     52                     53                     54
                      A                      A                      A
 Frequencies --    744.1572               744.2436               766.2063
 Red. masses --      7.4027                 7.4333                 1.8081
 Frc consts  --      2.4153                 2.4258                 0.6254
 IR Inten    --      0.0002                 0.0004               168.6692

                     55                     56                     57
                      A                      A                      A
 Frequencies --    767.0187               767.0268               784.1482
 Red. masses --      1.8314                 1.8313                 5.6370
 Frc consts  --      0.6348                 0.6348                 2.0422
 IR Inten    --      0.0004                 0.0040                 0.1146

                     58                     59                     60
                      A                      A                      A
 Frequencies --    804.5876               826.9293               826.9671
 Red. masses --      6.9315                 1.2794                 1.2789
 Frc consts  --      2.6438                 0.5155                 0.5153
 IR Inten    --      0.0001                 0.0073                 0.0006

                     61                     62                     63
                      A                      A                      A
 Frequencies --    827.5888               852.0648               852.1617
 Red. masses --      1.2989                 4.6120                 4.6158
 Frc consts  --      0.5242                 1.9728                 1.9749
 IR Inten    --      3.3570                 6.4030                 6.3987

                     64                     65                     66
                      A                      A                      A
 Frequencies --    884.0017               884.6751               886.4667
 Red. masses --      1.3539                 1.3592                 1.3923
 Frc consts  --      0.6234                 0.6268                 0.6446
 IR Inten    --      0.4252                14.1809                95.4809

                     67                     68                     69
                      A                      A                      A
 Frequencies --    903.2958               903.3608               903.7761
 Red. masses --      1.4654                 1.4652                 1.4700
 Frc consts  --      0.7045                 0.7045                 0.7074
 IR Inten    --      0.0046                 0.5950                41.0122

                     70                     71                     72
                      A                      A                      A
 Frequencies --    916.5881               972.2124               972.3276
 Red. masses --      4.8839                 1.3577                 1.3580
 Frc consts  --      2.4175                 0.7561                 0.7565
 IR Inten    --      0.0032                 2.0547                 0.0279

                     73                     74                     75
                      A                      A                      A
 Frequencies --    972.3507               989.5539               989.7465
 Red. masses --      1.3580                 1.2900                 1.2893
 Frc consts  --      0.7565                 0.7442                 0.7441
 IR Inten    --      0.0111                 2.0690                 0.0024

                     76                     77                     78
                      A                      A                      A
 Frequencies --    989.7682              1010.9951              1011.3322
 Red. masses --      1.2891                 1.2293                 6.0125
 Frc consts  --      0.7441                 0.7403                 3.6232
 IR Inten    --      0.0071                86.2729                 2.4538

                     79                     80                     81
                      A                      A                      A
 Frequencies --   1011.3423              1011.7490              1014.0935
 Red. masses --      6.0001                 5.9499                 1.2345
 Frc consts  --      3.6158                 3.5884                 0.7480
 IR Inten    --      2.4887                 0.2021                 0.0035

                     82                     83                     84
                      A                      A                      A
 Frequencies --   1014.4770              1043.3274              1043.3819
 Red. masses --      1.2331                 3.1433                 3.1334
 Frc consts  --      0.7477                 2.0159                 2.0098
 IR Inten    --      0.5317                18.9045                18.7001

                     85                     86                     87
                      A                      A                      A
 Frequencies --   1050.4778              1060.1675              1060.2454
 Red. masses --      2.1858                 3.0567                 3.0651
 Frc consts  --      1.4212                 2.0242                 2.0300
 IR Inten    --      0.0000                87.1795                87.6406

                     88                     89                     90
                      A                      A                      A
 Frequencies --   1113.5420              1113.5727              1113.6913
 Red. masses --      1.5899                 1.5897                 1.5873
 Frc consts  --      1.1615                 1.1615                 1.1600
 IR Inten    --     16.2591                15.8465                 0.8234

                     91                     92                     93
                      A                      A                      A
 Frequencies --   1192.5421              1192.5493              1192.5779
 Red. masses --      1.1205                 1.1205                 1.1193
 Frc consts  --      0.9389                 0.9389                 0.9379
 IR Inten    --      7.4256                 7.2187                 0.2189

                     94                     95                     96
                      A                      A                      A
 Frequencies --   1210.9870              1211.2412              1211.3469
 Red. masses --      1.2549                 1.2300                 1.2278
 Frc consts  --      1.0843                 1.0632                 1.0615
 IR Inten    --      0.4800                12.8022                12.2176

                     97                     98                     99
                      A                      A                      A
 Frequencies --   1225.7686              1225.9093              1227.0682
 Red. masses --      2.5855                 2.5987                 2.5915
 Frc consts  --      2.2889                 2.3010                 2.2990
 IR Inten    --     74.3402                74.1332                 0.4387

                    100                    101                    102
                      A                      A                      A
 Frequencies --   1258.7027              1258.7564              1258.9003
 Red. masses --      3.0830                 3.0850                 2.5264
 Frc consts  --      2.8778                 2.8800                 2.3590
 IR Inten    --    532.2454               533.0270                 5.8497

                    103                    104                    105
                      A                      A                      A
 Frequencies --   1332.7432              1332.9033              1333.1298
 Red. masses --      2.6402                 2.7485                 4.1546
 Frc consts  --      2.7630                 2.8771                 4.3504
 IR Inten    --    778.7531               714.1582                25.3529

                    106                    107                    108
                      A                      A                      A
 Frequencies --   1337.0384              1337.1436              1357.3266
 Red. masses --      2.6645                 2.5902                 2.0665
 Frc consts  --      2.8065                 2.7286                 2.2432
 IR Inten    --    592.7046               635.3629                 0.1404

                    109                    110                    111
                      A                      A                      A
 Frequencies --   1361.9938              1364.4639              1364.5035
 Red. masses --      1.5473                 1.4928                 1.4927
 Frc consts  --      1.6911                 1.6375                 1.6374
 IR Inten    --      0.0053                 0.2774                 0.3100

                    112                    113                    114
                      A                      A                      A
 Frequencies --   1398.7823              1400.0432              1400.6710
 Red. masses --      2.1125                 2.0618                 2.0642
 Frc consts  --      2.4353                 2.3811                 2.3861
 IR Inten    --      1.7378                53.5109                49.8607

                    115                    116                    117
                      A                      A                      A
 Frequencies --   1424.1421              1468.2908              1468.3088
 Red. masses --      4.4950                 4.0419                 4.0382
 Frc consts  --      5.3714                 5.1341                 5.1295
 IR Inten    --      0.0012               382.9864               383.4389

                    118                    119                    120
                      A                      A                      A
 Frequencies --   1490.7103              1496.4295              1496.4819
 Red. masses --      2.5000                 2.7940                 2.7933
 Frc consts  --      3.2733                 3.6863                 3.6857
 IR Inten    --      0.0075               181.5816               181.4593

                    121                    122                    123
                      A                      A                      A
 Frequencies --   1533.0249              1535.2558              1535.2900
 Red. masses --      2.3316                 2.5461                 2.5456
 Frc consts  --      3.2286                 3.5358                 3.5352
 IR Inten    --      0.0096                51.8292                51.8596

                    124                    125                    126
                      A                      A                      A
 Frequencies --   1594.0355              1594.0819              1598.9676
 Red. masses --      5.7609                 5.7664                 3.2606
 Frc consts  --      8.6245                 8.6333                 4.9116
 IR Inten    --    631.3688               634.5440                 0.0853

                    127                    128                    129
                      A                      A                      A
 Frequencies --   1621.6364              1621.6619              1636.5640
 Red. masses --      4.9122                 4.9113                 4.4705
 Frc consts  --      7.6109                 7.6098                 7.0546
 IR Inten    --    919.7254               917.2130                 0.0193

                    130                    131                    132
                      A                      A                      A
 Frequencies --   1641.1711              1641.2054              1643.2561
 Red. masses --      4.7591                 4.7587                 5.3987
 Frc consts  --      7.5524                 7.5521                 8.5891
 IR Inten    --    294.3121               293.7895                 0.0225

                    133                    134                    135
                      A                      A                      A
 Frequencies --   1666.6566              1666.7936              1710.5636
 Red. masses --      2.8179                 2.8101                 4.7400
 Frc consts  --      4.6118                 4.5997                 8.1715
 IR Inten    --   1406.1406              1408.9846                 0.0109

                    136                    137                    138
                      A                      A                      A
 Frequencies --   3162.2809              3162.2876              3162.3163
 Red. masses --      1.0867                 1.0867                 1.0867
 Frc consts  --      6.4026                 6.4027                 6.4029
 IR Inten    --     13.0236                12.9214                 0.3294

                    139                    140                    141
                      A                      A                      A
 Frequencies --   3169.1387              3169.1413              3169.1583
 Red. masses --      1.0882                 1.0882                 1.0882
 Frc consts  --      6.4394                 6.4394                 6.4394
 IR Inten    --      1.8808                 1.8761                 0.0217

                    142                    143                    144
                      A                      A                      A
 Frequencies --   3178.7072              3178.7201              3178.7214
 Red. masses --      1.0921                 1.0921                 1.0921
 Frc consts  --      6.5016                 6.5017                 6.5017
 IR Inten    --     13.1705                17.0706                 6.6915

                    145                    146                    147
                      A                      A                      A
 Frequencies --   3188.0701              3188.0920              3188.2128
 Red. masses --      1.0935                 1.0935                 1.0934
 Frc consts  --      6.5481                 6.5481                 6.5484
 IR Inten    --     25.2189                25.0017                 0.4229

                    148                    149                    150
                      A                      A                      A
 Frequencies --   3194.0224              3194.0460              3194.1205
 Red. masses --      1.0964                 1.0964                 1.0964
 Frc consts  --      6.5902                 6.5904                 6.5906
 IR Inten    --     14.6070                14.9078                 0.3627

                    151                    152                    153
                      A                      A                      A
 Frequencies --   3202.5816              3202.5945              3202.6890
 Red. masses --      1.0912                 1.0912                 1.0911
 Frc consts  --      6.5940                 6.5942                 6.5936
 IR Inten    --      4.6075                 4.6184                 0.0309

                    154                    155                    156
                      A                      A                      A
 Frequencies --   3311.3195              3313.5322              3313.7118
 Red. masses --      1.0797                 1.0799                 1.0799
 Frc consts  --      6.9750                 6.9857                 6.9864
 IR Inten    --      0.7810               223.8519               224.0593

 - Thermochemistry -
 -------------------
 Temperature   298.150 Kelvin.  Pressure   1.00000 Atm.
 Atom     1 has atomic number  6 and mass  12.00000

 Molecular mass:   435.15829 amu.
 Principal axes and moments of inertia in atomic units:
                           1         2         3
     Eigenvalues --  ******************************
           X            1.00000   0.00049   0.00000
           Y           -0.00049   1.00000   0.00000
           Z           -0.00000  -0.00000   1.00000
 This molecule is an asymmetric top.
 Rotational symmetry number  1.
 Warning -- assumption of classical behavior for rotation
           may cause significant error
 Rotational temperatures (Kelvin)      0.00405     0.00405     0.00203
 Rotational constants (GHZ):           0.08449     0.08447     0.04224
 Zero-point vibrational energy    1109902.1 (Joules/Mol)
                                  265.27297 (Kcal/Mol)
 Warning -- explicit consideration of  41 degrees of freedom as
           vibrations may cause significant error
 Vibrational temperatures:      7.23    12.15    13.88    25.60    52.15
          (Kelvin)             52.35    52.93    53.70   127.70   127.90
                              129.70   158.80   239.27   255.67   255.74
                              256.52   298.01   298.32   371.03   371.10
                              387.65   427.75   428.40   445.68   498.21
                              567.84   568.21   594.44   598.02   598.10
                              645.88   646.06   694.36   694.45   716.62
                              722.76   722.87   744.91   748.09   748.11
                              810.03   896.11   909.09   909.13   909.27
                              928.46   928.51  1003.83  1003.85  1004.26
                             1039.33  1070.68  1070.80  1102.40  1103.57
                             1103.58  1128.21  1157.62  1189.77  1189.82
                             1190.72  1225.93  1226.07  1271.88  1272.85
                             1275.43  1299.64  1299.73  1300.33  1318.77
                             1398.80  1398.96  1399.00  1423.75  1424.02
                             1424.06  1454.60  1455.08  1455.10  1455.68
                             1459.05  1459.61  1501.12  1501.19  1511.40
                             1525.34  1525.46  1602.14  1602.18  1602.35
                             1715.80  1715.81  1715.85  1742.34  1742.71
                             1742.86  1763.61  1763.81  1765.48  1810.99
                             1811.07  1811.28  1917.52  1917.75  1918.08
                             1923.70  1923.85  1952.89  1959.61  1963.16
                             1963.22  2012.54  2014.35  2015.25  2049.02
                             2112.54  2112.57  2144.80  2153.03  2153.10
                             2205.68  2208.89  2208.94  2293.46  2293.53
                             2300.56  2333.17  2333.21  2354.65  2361.28
                             2361.33  2364.28  2397.95  2398.14  2461.12
                             4549.82  4549.83  4549.87  4559.68  4559.69
                             4559.71  4573.45  4573.47  4573.47  4586.92
                             4586.95  4587.13  4595.49  4595.52  4595.63
                             4607.80  4607.82  4607.96  4764.25  4767.43
                             4767.69

 Zero-point correction=                           0.422739 (Hartree/Particle)
 Thermal correction to Energy=                    0.449902
 Thermal correction to Enthalpy=                  0.450847
 Thermal correction to Gibbs Free Energy=         0.357370
 Sum of electronic and zero-point Energies=          -1431.502386
 Sum of electronic and thermal Energies=             -1431.475223
 Sum of electronic and thermal Enthalpies=           -1431.474279
 Sum of electronic and thermal Free Energies=        -1431.567755

                     E (Thermal)             CV                S
                      KCal/Mol        Cal/Mol-Kelvin    Cal/Mol-Kelvin
 Total                  282.318            106.149            196.738
 Electronic               0.000              0.000              0.000
 Translational            0.889              2.981             44.101
 Rotational               0.889              2.981             38.208
 Vibrational            280.541            100.187            114.428
 Vibration     1          0.593              1.987              9.379
 Vibration     2          0.593              1.987              8.347
 Vibration     3          0.593              1.987              8.082
 Vibration     4          0.593              1.986              6.866
 Vibration     5          0.594              1.982              5.454
 Vibration     6          0.594              1.982              5.447
 Vibration     7          0.594              1.982              5.425
 Vibration     8          0.594              1.982              5.396
 Vibration     9          0.602              1.957              3.687
 Vibration    10          0.602              1.957              3.684
 Vibration    11          0.602              1.956              3.657
 Vibration    12          0.606              1.941              3.262
 Vibration    13          0.624              1.884              2.477
 Vibration    14          0.628              1.870              2.352
 Vibration    15          0.628              1.870              2.352
 Vibration    16          0.629              1.869              2.346
 Vibration    17          0.641              1.830              2.069
 Vibration    18          0.641              1.829              2.067
 Vibration    19          0.667              1.749              1.676
 Vibration    20          0.667              1.749              1.676
 Vibration    21          0.674              1.729              1.600
 Vibration    22          0.691              1.679              1.432
 Vibration    23          0.691              1.678              1.430
 Vibration    24          0.699              1.655              1.364
 Vibration    25          0.724              1.583              1.183
 Vibration    26          0.762              1.482              0.982
 Vibration    27          0.762              1.481              0.981
 Vibration    28          0.777              1.442              0.916
 Vibration    29          0.779              1.436              0.907
 Vibration    30          0.779              1.436              0.907
 Vibration    31          0.808              1.363              0.799
 Vibration    32          0.808              1.363              0.799
 Vibration    33          0.839              1.289              0.703
 Vibration    34          0.839              1.288              0.703
 Vibration    35          0.854              1.254              0.663
 Vibration    36          0.858              1.245              0.652
 Vibration    37          0.858              1.245              0.652
 Vibration    38          0.873              1.211              0.615
 Vibration    39          0.875              1.206              0.610
 Vibration    40          0.875              1.206              0.610
 Vibration    41          0.919              1.111              0.518

 Normal termination of Gaussian 16 at Mon Jan 25 14:23:47 2021.
